% Model:              GEM_Comsol_Garfield_3layer.mph
% Version:            COMSOL 6.2.0.290
% Date:               Jun 5 2025, 12:56
% Dimension:          3
% Nodes:              30650
% Expressions:        1
% Description:        Electric potential
% Length unit:        mm
% x             y              z              V (V)
0.035353        -0.0093782     2.9613         -4090.2
0.035177        0.010829       2.9807         -4095.1
0.017677        -0.0093782     2.9807         -4095.1
0.035000        0.031036       3.0000         -4100.0
0.017500        0.010829       3.0000         -4100.0
0.0000          -0.0093782     3.0000         -4100.0
0.052677        -0.0093782     2.9807         -4095.1
0.052500        0.010829       3.0000         -4100.0
0.035000        -0.0093782     3.0000         -4100.0
0.070000        -0.0093782     3.0000         -4100.0
-3.7120E-18     0.051244       3.0000         -4100.0
0.017500        0.041140       3.0000         -4100.0
-3.2086E-18     0.043023       2.9770         -4094.1
0.017500        0.032919       2.9770         -4094.1
-2.7052E-18     0.034802       2.9539         -4088.3
0.017500        0.061347       3.0000         -4100.0
0.035000        0.051244       3.0000         -4100.0
0.017500        0.053126       2.9770         -4094.1
0.035000        0.071451       3.0000         -4100.0
-1.8560E-18     0.020933       3.0000         -4100.0
-1.3526E-18     0.012712       2.9770         -4094.1
0.017677        0.012712       2.9576         -4089.2
0.017677        -0.0093782     2.9417         -4085.2
-1.3526E-18     0.012712       2.9380         -4084.2
0.0000          -0.0093782     2.9222         -4080.2
0.0000          -0.0093782     2.9611         -4090.1
0.052677        -0.0093782     2.9422         -4085.3
0.035000        -0.0093782     2.9226         -4080.3
0.035000        0.012712       2.9385         -4084.3
0.070000        -0.0093782     2.9230         -4080.4
0.052677        0.020885       2.9575         -4089.2
0.070000        0.020885       2.9384         -4084.3
0.070000        0.051149       2.9537         -4088.2
0.070000        -0.0093782     2.9615         -4090.2
0.070000        0.020885       2.9768         -4094.1
0.035000        0.042975       2.9538         -4088.2
0.070000        0.051244       3.0000         -4100.0
0.052500        0.041140       3.0000         -4100.0
0.070000        0.051196       2.9768         -4094.1
0.052500        0.041093       2.9768         -4094.1
0.070000        0.020933       3.0000         -4100.0
0.052500        0.061347       3.0000         -4100.0
0.052500        0.061300       2.9768         -4094.1
-4.2584E-18     0.060167       2.9766         -4094.1
0.017500        0.070271       2.9766         -4094.1
-4.8048E-18     0.069090       2.9532         -4088.1
-1.8560E-18     0.081554       3.0000         -4100.0
0.017500        0.091658       3.0000         -4100.0
-2.4024E-18     0.090478       2.9766         -4094.1
0.0000          0.11187        3.0000         -4100.0
-3.7550E-18     0.051946       2.9536         -4088.2
0.035000        0.060120       2.9535         -4088.2
0.035000        0.11187        2.9611         -4090.1
0.035000        0.091658       2.9805         -4095.1
0.017500        0.11187        2.9805         -4095.1
0.017500        0.090478       2.9572         -4089.1
0.052500        0.091658       3.0000         -4100.0
0.052500        0.11187        2.9805         -4095.1
0.070000        0.11187        3.0000         -4100.0
0.052500        0.081507       2.9574         -4089.2
0.070000        0.081507       2.9768         -4094.1
0.035000        0.11187        3.0000         -4100.0
0.070000        0.081554       3.0000         -4100.0
0.017500        0.11187        2.9419         -4085.2
-2.4024E-18     0.090478       2.9380         -4084.2
0.0000          0.11187        2.9613         -4090.2
0.0000          0.11187        2.9227         -4080.3
-3.1926E-18     0.042761       2.9298         -4082.2
-4.2424E-18     0.059906       2.9295         -4082.1
0.035000        0.050935       2.9297         -4082.1
-3.6800E-18     0.050721       2.9058         -4076.0
-1.8400E-18     0.020671       2.9140         -4078.1
0.035000        0.020671       2.9144         -4078.2
0.070000        0.020606       2.9015         -4074.9
0.070000        -0.0093782     2.8825         -4070.1
0.070000        0.050590       2.8800         -4069.5
0.070000        0.020606       2.8610         -4064.6
0.070000        -0.0093782     2.8420         -4059.8
0.035000        0.020606       2.9011         -4074.8
0.035000        -0.0093782     2.8821         -4070.0
0.070000        0.050869       2.9168         -4078.8
0.035000        0.050655       2.8929         -4072.7
0.035000        -0.0093782     2.8412         -4059.6
0.0000          -0.0093782     2.8403         -4059.4
0.0000          -0.0093782     2.8812         -4069.8
0.035000        0.020606       2.8601         -4064.4
-1.8400E-18     0.020671       2.8730         -4067.7
0.035000        0.090478       2.9375         -4084.1
0.070000        0.081507       2.9377         -4084.2
0.035000        0.081293       2.9137         -4078.1
0.070000        0.11187        2.9217         -4080.1
0.052500        0.11187        2.9414         -4085.1
0.070000        0.11187        2.9609         -4090.0
0.070000        0.081228       2.9009         -4074.8
-1.8400E-18     0.081293       2.9142         -4078.2
0.035000        0.11187        2.9222         -4080.2
0.0000          0.11187        2.8820         -4070.0
-1.8400E-18     0.081293       2.8735         -4067.8
0.0000          0.11187        2.8413         -4059.6
0.035000        0.11187        2.8815         -4069.9
0.035000        0.081228       2.8606         -4064.5
-3.7175E-18     0.051333       2.8146         -4052.8
-3.6988E-18     0.051027       2.8602         -4064.4
0.035000        0.050962       2.8473         -4061.1
-1.8587E-18     0.081599       2.8279         -4056.2
-1.8587E-18     0.020977       2.8274         -4056.1
0.070000        0.020850       2.8208         -4054.4
0.070000        -0.0093782     2.8015         -4049.5
0.070000        0.051078       2.7997         -4049.0
0.070000        0.020850       2.7803         -4044.1
0.070000        -0.0093782     2.7610         -4039.2
0.035000        0.020850       2.8200         -4054.2
0.035000        -0.0093782     2.8006         -4049.3
0.035000        -0.0093782     2.7597         -4038.9
0.0000          -0.0093782     2.7583         -4038.5
0.0000          -0.0093782     2.7993         -4048.9
0.035000        0.020850       2.7790         -4043.8
-1.8587E-18     0.020977       2.7864         -4045.7
0.035000        0.051206       2.8071         -4050.9
0.070000        0.050834       2.8398         -4059.3
0.070000        0.11187        2.8394         -4059.1
0.070000        0.081228       2.8597         -4064.3
0.070000        0.11187        2.8806         -4069.6
0.035000        0.11187        2.8403         -4059.4
0.070000        0.081472       2.8195         -4054.1
0.035000        0.081599       2.8270         -4056.0
0.0000          0.11187        2.8005         -4049.3
-1.8587E-18     0.081599       2.7872         -4045.9
0.0000          0.11187        2.7598         -4038.9
0.035000        0.11187        2.7996         -4049.0
0.035000        0.081472       2.7797         -4044.0
-3.7097E-18     0.051206       2.7711         -4041.8
-1.8510E-18     0.020851       2.7430         -4034.6
-3.7020E-18     0.051080       2.7277         -4030.7
0.035000        0.051079       2.7637         -4039.9
-1.8510E-18     0.081472       2.7437         -4034.8
0.070000        0.020706       2.7401         -4033.9
0.070000        -0.0093782     2.7204         -4028.9
0.070000        0.050791       2.7192         -4028.6
0.070000        0.020706       2.6995         -4023.6
0.070000        -0.0093782     2.6799         -4018.6
0.035000        0.020706       2.7387         -4033.5
0.035000        -0.0093782     2.7191         -4028.5
0.070000        0.050934       2.7594         -4038.8
0.035000        0.050935       2.7234         -4029.6
0.035000        -0.0093782     2.6782         -4018.1
0.0000          -0.0093782     2.6764         -4017.7
0.0000          -0.0093782     2.7174         -4028.1
0.035000        0.020706       2.6978         -4023.1
-1.8510E-18     0.020851       2.7020         -4024.2
0.070000        0.081328       2.7381         -4033.4
0.070000        0.11187        2.7570         -4038.2
0.035000        0.081472       2.7423         -4034.5
0.070000        0.081472       2.7783         -4043.6
0.070000        0.11187        2.7982         -4048.7
0.035000        0.11187        2.7584         -4038.5
0.0000          0.11187        2.7191         -4028.5
-1.8510E-18     0.081472       2.7030         -4024.4
0.0000          0.11187        2.6783         -4018.2
0.035000        0.11187        2.7177         -4028.2
0.035000        0.081328       2.6987         -4023.4
-3.7051E-18     0.051131       2.6850         -4019.9
-1.8541E-18     0.020902       2.6593         -4013.3
-3.7083E-18     0.051183       2.6422         -4009.0
0.035000        0.050987       2.6807         -4018.8
-1.8541E-18     0.081524       2.6603         -4013.6
0.070000        0.020950       2.6588         -4013.2
0.070000        0.051035       2.6784         -4018.2
0.070000        0.051279       2.6377         -4007.8
0.035000        0.020950       2.6570         -4012.8
0.035000        0.051231       2.6400         -4008.4
0.070000        -0.0093782     2.6394         -4008.3
0.070000        0.020950       2.6183         -4002.9
0.070000        -0.0093782     2.5989         -3998.0
0.035000        -0.0093782     2.6376         -4007.8
0.035000        -0.0093782     2.5967         -3997.4
0.0000          -0.0093782     2.5944         -3996.8
0.0000          -0.0093782     2.6354         -4007.3
0.035000        0.020950       2.6161         -4002.3
-1.8541E-18     0.020902       2.6183         -4002.9
0.070000        0.11187        2.6746         -4017.2
0.070000        0.081328       2.6969         -4022.9
0.070000        0.11187        2.7158         -4027.7
0.035000        0.11187        2.6765         -4017.7
0.070000        0.081572       2.6562         -4012.5
0.035000        0.081524       2.6584         -4013.1
0.035000        0.081572       2.6173         -4002.6
-1.8541E-18     0.081524       2.6195         -4003.2
0.035000        0.11187        2.6357         -4007.3
0.0000          0.11187        2.5968         -3997.4
0.0000          0.11187        2.6376         -4007.8
-3.7484E-18     0.051838       2.5995         -3998.1
-1.8943E-18     0.021557       2.5756         -3992.0
-3.7885E-18     0.052493       2.5569         -3987.3
0.035000        0.051886       2.5973         -3997.5
-1.8943E-18     0.082179       2.5768         -3992.4
0.070000        0.020683       2.5772         -3992.4
0.070000        0.050744       2.5555         -3986.9
0.035000        0.020683       2.5750         -3991.9
0.070000        0.051011       2.5966         -3997.4
0.070000        -0.0093782     2.5583         -3987.6
0.070000        0.020683       2.5367         -3982.1
0.070000        -0.0093782     2.5178         -3977.3
0.035000        -0.0093782     2.5561         -3987.1
0.035000        0.051618       2.5562         -3987.1
0.035000        -0.0093782     2.5151         -3976.7
0.0000          -0.0093782     2.5125         -3976.0
0.0000          -0.0093782     2.5535         -3986.4
0.035000        0.020683       2.5340         -3981.5
-1.8943E-18     0.021557       2.5347         -3981.6
0.070000        0.11187        2.5922         -3996.3
0.070000        0.081572       2.6150         -4002.1
0.070000        0.11187        2.6334         -4006.7
0.035000        0.11187        2.5945         -3996.9
0.070000        0.081305       2.5739         -3991.6
0.035000        0.082179       2.5745         -3991.8
-1.8943E-18     0.082179       2.5361         -3982.0
0.035000        0.081305       2.5355         -3981.8
0.0000          0.11187        2.5154         -3976.7
0.035000        0.11187        2.5538         -3986.5
0.0000          0.11187        2.5561         -3987.1
0.035000        0.021080       2.4959         -3971.8
-1.8650E-18     0.021080       2.4932         -3971.1
0.035000        0.051141       2.5147         -3976.6
-3.7301E-18     0.051539       2.4740         -3966.2
-3.7593E-18     0.052016       2.5154         -3976.7
-1.8650E-18     0.081702       2.4947         -3971.5
0.035000        -0.0093782     2.4746         -3966.4
0.070000        -0.0093782     2.4773         -3967.0
0.070000        -0.0093782     2.4368         -3956.7
0.035000        0.021080       2.4554         -3961.5
0.0000          -0.0093782     2.4305         -3955.1
-1.8650E-18     0.021080       2.4523         -3960.7
0.0000          -0.0093782     2.4715         -3965.6
0.035000        -0.0093782     2.4336         -3955.9
0.070000        0.051352       2.4737         -3966.1
0.070000        0.020987       2.4552         -3961.4
0.070000        0.020987       2.4958         -3971.7
0.035000        0.051445       2.4738         -3966.2
0.070000        0.051048       2.5146         -3976.5
0.070000        0.081609       2.4918         -3970.7
0.070000        0.11187        2.5099         -3975.3
0.035000        0.081702       2.4919         -3970.8
0.070000        0.081305       2.5327         -3981.1
0.070000        0.11187        2.5511         -3985.8
0.035000        0.11187        2.5126         -3976.0
0.0000          0.11187        2.4746         -3966.4
-1.8650E-18     0.081702       2.4539         -3961.1
0.0000          0.11187        2.4339         -3956.0
0.035000        0.11187        2.4719         -3965.7
0.035000        0.081609       2.4538         -3961.1
0.035000        0.051447       2.4330         -3955.8
-3.7302E-18     0.051540       2.4331         -3955.8
-3.7303E-18     0.051542       2.3923         -3945.4
0.035000        0.021082       2.4145         -3951.1
-1.8651E-18     0.021082       2.4114         -3950.3
-1.8651E-18     0.081704       2.4131         -3950.7
0.0000          -0.0093782     2.3486         -3934.3
-1.8651E-18     0.021082       2.3704         -3939.9
0.0000          -0.0093782     2.3896         -3944.7
0.035000        -0.0093782     2.3521         -3935.2
0.035000        0.021082       2.3740         -3940.8
0.035000        -0.0093782     2.3931         -3945.6
0.070000        -0.0093782     2.3557         -3936.1
0.070000        -0.0093782     2.3962         -3946.4
0.070000        0.051233       2.3919         -3945.3
0.070000        0.020927       2.3738         -3940.7
0.070000        0.020927       2.4143         -3951.0
0.035000        0.051387       2.3921         -3945.4
0.070000        0.051292       2.4328         -3955.7
0.070000        0.081549       2.4097         -3949.8
0.070000        0.11187        2.4275         -3954.4
0.035000        0.081704       2.4099         -3949.9
0.070000        0.081609       2.4506         -3960.2
0.070000        0.11187        2.4687         -3964.8
0.035000        0.11187        2.4307         -3955.2
0.0000          0.11187        2.3932         -3945.6
-1.8651E-18     0.081704       2.3724         -3940.3
0.0000          0.11187        2.3524         -3935.3
0.035000        0.11187        2.3900         -3944.8
0.035000        0.081549       2.3722         -3940.3
0.035000        0.051389       2.3513         -3935.0
-3.7304E-18     0.051543       2.3514         -3935.0
-3.7305E-18     0.051545       2.3106         -3924.6
0.035000        0.021083       2.3332         -3930.4
-1.8652E-18     0.021083       2.3296         -3929.5
-1.8652E-18     0.081705       2.3315         -3930.0
0.035000        -0.0093782     2.3116         -3924.9
0.070000        -0.0093782     2.3152         -3925.8
0.070000        -0.0093782     2.2746         -3915.5
0.035000        0.021083       2.2926         -3920.1
0.0000          -0.0093782     2.2667         -3913.5
-1.8652E-18     0.021083       2.2886         -3919.0
0.0000          -0.0093782     2.3076         -3923.9
0.035000        -0.0093782     2.2706         -3914.5
0.070000        0.051079       2.3095         -3924.4
0.070000        0.020851       2.2921         -3919.9
0.070000        0.020851       2.3326         -3930.2
0.035000        0.051312       2.3101         -3924.5
0.070000        0.051156       2.3507         -3934.8
0.070000        0.081472       2.3273         -3928.9
0.070000        0.11187        2.3451         -3933.4
0.035000        0.081705       2.3279         -3929.0
0.070000        0.081549       2.3685         -3939.4
0.070000        0.11187        2.3863         -3943.9
0.035000        0.11187        2.3488         -3934.3
0.0000          0.11187        2.3117         -3924.9
-1.8652E-18     0.081705       2.2908         -3919.6
0.0000          0.11187        2.2710         -3914.5
0.035000        0.11187        2.3080         -3924.0
0.035000        0.081472       2.2902         -3919.5
0.035000        0.051314       2.2692         -3914.1
-3.7306E-18     0.051546       2.2698         -3914.2
-3.7307E-18     0.051548       2.2289         -3903.9
0.035000        0.021085       2.2518         -3909.7
-1.8653E-18     0.021085       2.2478         -3908.7
-1.8653E-18     0.081707       2.2499         -3909.2
0.035000        -0.0093782     2.2301         -3904.2
0.070000        -0.0093782     2.2341         -3905.2
0.070000        -0.0093782     2.1936         -3894.9
0.035000        0.021085       2.2113         -3899.4
0.0000          -0.0093782     2.1847         -3892.6
-1.8653E-18     0.021085       2.2068         -3898.2
0.0000          -0.0093782     2.2257         -3903.0
0.035000        -0.0093782     2.1891         -3893.7
0.070000        0.050815       2.2276         -3903.5
0.070000        0.020719       2.2106         -3899.2
0.070000        0.020719       2.2511         -3909.5
0.035000        0.051182       2.2283         -3903.7
0.070000        0.050947       2.2686         -3913.9
0.070000        0.081340       2.2452         -3908.0
0.070000        0.11187        2.2627         -3912.5
0.035000        0.081707       2.2458         -3908.2
0.070000        0.081472       2.2861         -3918.4
0.070000        0.11187        2.3039         -3922.9
0.035000        0.11187        2.2668         -3913.5
-1.8653E-18     0.081707       2.2092         -3898.8
0.035000        0.081340       2.2085         -3898.7
0.0000          0.11187        2.1895         -3893.8
0.035000        0.11187        2.2261         -3903.1
0.0000          0.11187        2.2302         -3904.2
0.035000        0.051183       2.1874         -3893.3
-3.7307E-18     0.051550       2.1881         -3893.5
-3.7308E-18     0.051551       2.1473         -3883.1
0.035000        0.021086       2.1704         -3889.0
-1.8654E-18     0.021086       2.1660         -3887.8
-1.8654E-18     0.081708       2.1684         -3888.5
0.035000        -0.0093782     2.1486         -3883.4
0.070000        -0.0093782     2.1531         -3884.6
0.070000        -0.0093782     2.1125         -3874.2
0.035000        0.021086       2.1299         -3878.7
0.0000          -0.0093782     2.1028         -3871.8
-1.8654E-18     0.021086       2.1250         -3877.4
0.0000          -0.0093782     2.1437         -3882.2
0.035000        -0.0093782     2.1076         -3873.0
0.070000        0.051164       2.1466         -3882.9
0.070000        0.020893       2.1296         -3878.6
0.070000        0.020893       2.1701         -3888.9
0.035000        0.051358       2.1469         -3883.0
0.070000        0.050990       2.1871         -3893.2
0.070000        0.11187        2.1803         -3891.5
0.070000        0.081340       2.2040         -3897.5
0.070000        0.11187        2.2215         -3902.0
0.035000        0.11187        2.1849         -3892.7
0.070000        0.081515       2.1635         -3887.2
0.035000        0.081708       2.1638         -3887.3
0.0000          0.11187        2.1487         -3883.5
-1.8654E-18     0.081708       2.1276         -3878.1
0.0000          0.11187        2.1080         -3873.1
0.035000        0.11187        2.1442         -3882.3
0.035000        0.081515       2.1273         -3878.0
0.0000          -0.0093782     2.0208         -3850.9
-1.8655E-18     0.021088       2.0432         -3856.6
0.0000          -0.0093782     2.0618         -3861.3
-3.7310E-18     0.051554       2.0656         -3862.3
-1.8655E-18     0.021088       2.0842         -3867.0
0.035000        -0.0093782     2.0261         -3852.3
0.035000        0.021088       2.0485         -3858.0
0.035000        -0.0093782     2.0671         -3862.7
0.070000        -0.0093782     2.0315         -3853.6
0.035000        0.051359       2.1061         -3872.6
-3.7309E-18     0.051553       2.1064         -3872.7
0.035000        0.021088       2.0891         -3868.3
0.070000        -0.0093782     2.0720         -3863.9
-1.8655E-18     0.081710       2.0868         -3867.7
0.070000        0.051154       2.0648         -3862.1
0.070000        0.020888       2.0482         -3857.9
0.070000        0.020888       2.0887         -3868.2
0.035000        0.051354       2.0652         -3862.2
0.070000        0.051159       2.1057         -3872.5
0.035000        0.081510       2.0864         -3867.6
0.070000        0.11187        2.0980         -3870.5
0.070000        0.081515       2.1223         -3876.7
0.070000        0.11187        2.1392         -3881.0
0.035000        0.11187        2.1030         -3871.8
0.070000        0.081510       2.0814         -3866.3
0.034882        0.11187        2.0620         -3861.4
0.052441        0.11187        2.0800         -3866.0
0.017441        0.11187        2.0850         -3867.2
0.052441        0.081510       2.0634         -3861.7
0.017441        0.081710       2.0638         -3861.8
0.017441        0.11187        2.0443         -3856.9
0.0000          0.11187        2.0265         -3852.4
-1.8655E-18     0.081710       2.0461         -3857.3
0.0000          0.11187        2.0673         -3862.7
0.035000        0.051356       2.0244         -3851.8
-3.7311E-18     0.051556       2.0248         -3851.9
-3.7312E-18     0.051557       1.9839         -3841.5
0.035000        0.021089       2.0077         -3847.6
-1.8656E-18     0.021089       2.0024         -3846.2
0.035000        -0.0093782     1.9856         -3842.0
0.070000        -0.0093782     1.9909         -3843.3
0.070000        -0.0093782     1.9504         -3833.0
0.035000        0.021089       1.9672         -3837.3
0.0000          -0.0093782     1.9389         -3830.1
-1.8656E-18     0.021089       1.9614         -3835.8
0.0000          -0.0093782     1.9798         -3840.5
0.035000        -0.0093782     1.9446         -3831.5
0.070000        0.051144       1.9831         -3841.3
0.070000        0.020883       1.9668         -3837.2
0.070000        0.020883       2.0073         -3847.5
0.035000        0.051350       1.9835         -3841.4
0.070000        0.051149       2.0240         -3851.7
-1.8656E-18     0.081711       2.0052         -3846.9
0.035000        0.11187        2.0211         -3851.0
0.035000        0.081711       1.9998         -3845.6
0.070000        0.11187        2.0156         -3849.6
0.035000        0.081710       2.0406         -3855.9
0.052441        0.11187        2.0388         -3855.5
0.070000        0.11187        2.0568         -3860.1
0.070000        0.081510       2.0402         -3855.8
0.070000        0.081504       1.9993         -3845.4
0.035000        0.081504       1.9641         -3836.5
-1.8656E-18     0.081711       1.9645         -3836.6
0.035000        0.11187        1.9803         -3840.6
0.0000          0.11187        1.9451         -3831.6
0.0000          0.11187        1.9858         -3842.0
0.035000        0.051352       1.9427         -3831.0
-3.7313E-18     0.051559       1.9431         -3831.1
-3.7314E-18     0.051560       1.9023         -3820.7
0.035000        0.021091       1.9263         -3826.9
-1.8657E-18     0.021091       1.9206         -3825.4
-1.8657E-18     0.081713       1.9237         -3826.2
0.035000        -0.0093782     1.9041         -3821.2
0.070000        -0.0093782     1.9099         -3822.7
0.070000        -0.0093782     1.8694         -3812.4
0.035000        0.021091       1.8858         -3816.6
0.0000          -0.0093782     1.8569         -3809.2
-1.8657E-18     0.021091       1.8796         -3815.0
0.0000          -0.0093782     1.8979         -3819.6
0.035000        -0.0093782     1.8631         -3810.8
0.035000        0.034339       1.8536         -3808.4
0.017500        0.012480       1.8553         -3808.8
0.052500        0.012480       1.8615         -3810.4
0.017500        0.042949       1.8779         -3814.6
0.070000        0.051133       1.9014         -3820.5
0.070000        0.020877       1.8854         -3816.4
0.070000        0.020877       1.9259         -3826.8
0.035000        0.051347       1.9018         -3820.6
0.070000        0.051138       1.9422         -3830.9
0.052500        0.042736       1.8775         -3814.4
0.070000        0.11187        1.9332         -3828.6
0.070000        0.081504       1.9582         -3835.0
0.070000        0.11187        1.9744         -3839.1
0.035000        0.11187        1.9391         -3830.1
0.070000        0.081499       1.9173         -3824.6
0.035000        0.081713       1.9177         -3824.7
0.0000          0.11187        1.9043         -3821.3
-1.8657E-18     0.081713       1.8829         -3815.8
0.0000          0.11187        1.8636         -3810.9
0.035000        0.11187        1.8984         -3819.8
0.017500        0.073102       1.8586         -3809.6
0.035000        0.081499       1.8825         -3815.7
0.017500        0.042951       1.8371         -3804.2
-3.7316E-18     0.051563       1.8206         -3800.0
-3.7315E-18     0.051562       1.8614         -3810.4
-1.8658E-18     0.081714       1.8421         -3805.4
-1.8658E-18     0.021093       1.8387         -3804.6
-1.8658E-18     0.021093       1.7978         -3794.2
0.017500        0.012480       1.8143         -3798.4
0.0000          -0.0093782     1.8159         -3798.8
0.0000          -0.0093782     1.7750         -3788.4
0.035000        -0.0093782     1.8226         -3800.5
0.052500        0.012480       1.8210         -3800.1
0.070000        -0.0093782     1.7883         -3791.8
0.035000        -0.0093782     1.7816         -3790.1
0.070000        -0.0093782     1.8288         -3802.1
0.035000        0.051343       1.8201         -3799.8
0.052500        0.042731       1.8366         -3804.1
0.035000        0.020872       1.7973         -3794.0
0.070000        0.051122       1.8196         -3799.7
0.070000        0.020872       1.8040         -3795.7
0.070000        0.020872       1.8445         -3806.1
0.070000        0.051128       1.8605         -3810.1
0.070000        0.11187        1.8508         -3807.7
0.070000        0.081499       1.8761         -3814.1
0.070000        0.11187        1.8920         -3818.1
0.035000        0.11187        1.8572         -3809.3
0.052500        0.073102       1.8522         -3808.0
0.070000        0.081494       1.8352         -3803.7
0.035000        0.081714       1.8357         -3803.8
0.0000          0.11187        1.8229         -3800.5
-1.8658E-18     0.081714       1.8013         -3795.1
0.0000          0.11187        1.7821         -3790.2
0.035000        0.11187        1.8165         -3798.9
0.035000        0.081494       1.8009         -3795.0
-3.7317E-18     0.051565       1.7797         -3789.6
-1.8659E-18     0.081716       1.7605         -3784.7
0.035000        0.051344       1.7793         -3789.5
-3.7318E-18     0.051566       1.7389         -3779.2
-1.8659E-18     0.021094       1.7569         -3783.8
0.070000        -0.0093782     1.7072         -3771.1
0.035000        -0.0093782     1.7001         -3769.3
0.035000        -0.0093782     1.7411         -3779.7
0.0000          -0.0093782     1.6930         -3767.5
0.0000          -0.0093782     1.7340         -3777.9
0.070000        0.020867       1.7226         -3775.0
0.035000        0.020867       1.7155         -3773.2
0.035000        0.020867       1.7564         -3783.6
0.070000        0.051112       1.7379         -3778.9
-1.8659E-18     0.021094       1.7160         -3773.3
0.035000        0.051339       1.7384         -3779.1
0.070000        0.020867       1.7631         -3785.3
0.070000        -0.0093782     1.7478         -3781.4
0.070000        0.051117       1.7788         -3789.3
0.070000        0.081488       1.7532         -3782.8
0.070000        0.11187        1.7684         -3786.7
0.035000        0.081716       1.7537         -3782.9
0.070000        0.081494       1.7940         -3793.2
0.035000        0.11187        1.7753         -3788.4
0.070000        0.11187        1.8096         -3797.2
0.0000          0.11187        1.7414         -3779.8
-1.8659E-18     0.081716       1.7198         -3774.3
0.0000          0.11187        1.7006         -3769.5
0.035000        0.11187        1.7345         -3778.1
0.035000        0.081488       1.7193         -3774.2
-3.7319E-18     0.051568       1.6981         -3768.8
-1.8660E-18     0.081717       1.6789         -3763.9
0.035000        0.051340       1.6976         -3768.7
-3.7320E-18     0.051569       1.6572         -3758.4
-1.8660E-18     0.021096       1.6751         -3763.0
0.070000        -0.0093782     1.6262         -3750.5
0.035000        -0.0093782     1.6186         -3748.6
0.035000        -0.0093782     1.6596         -3759.0
0.0000          -0.0093782     1.6111         -3746.7
0.0000          -0.0093782     1.6520         -3757.1
0.070000        0.020861       1.6412         -3754.3
0.035000        0.020861       1.6336         -3752.4
0.035000        0.020861       1.6746         -3762.8